<?xml version="1.0" encoding="UTF-8"?>

<!-- generated on 2026-03-15T16:53:37.103757+05:30 by Eclipse SUMO GUI 1.26.0
<sumoConfiguration xmlns:xsi="http://www.w3.org/2001/XMLSchema-instance" xsi:noNamespaceSchemaLocation="http://sumo.dlr.de/xsd/sumoConfiguration.xsd">

    <input>
        <net-file value="C:\Users\donga\OneDrive\Desktop\SUMO_project\road.net.xml"/>
        <route-files value="C:\Users\donga\OneDrive\Desktop\SUMO_project\route.rou.xml"/>
        <additional-files value="C:\Users\donga\OneDrive\Desktop\SUMO_project\output.add.xml"/>
    </input>

    <output>
        <fcd-output value="C:\Users\donga\OneDrive\Desktop\SUMO_project\fcd.xml"/>
    </output>

    <time>
        <begin value="0"/>
        <end value="200"/>
    </time>

</sumoConfiguration>
-->

<fcd-export xmlns:xsi="http://www.w3.org/2001/XMLSchema-instance" xsi:noNamespaceSchemaLocation="http://sumo.dlr.de/xsd/fcd_file.xsd">
</fcd-export>
